5
Properties=species:S:1:pos:R:3 energy=-39.980966533717975 pbc="F F F"
C        0.00000000       0.00000000       0.00000000
H        1.19577180       0.69582632      -1.53777680
H       -0.07590599       1.04620262       1.95058034
H       -1.10813614       1.91728119       1.81155538
H        1.39764218      -0.98903322      -0.05350022
5
Properties=species:S:1:pos:R:3 energy=-39.9457093137831 pbc="F F F"
C        0.00000000       0.00000000       0.00000000
H       -1.27896922       1.34804716       0.82671405
H        0.69502447       0.98359270      -0.96639941
H        1.75389883      -1.70147187       1.05770478
H        0.98044491       0.46991780       1.57319006
5
Properties=species:S:1:pos:R:3 energy=-39.863732196897764 pbc="F F F"
C        0.00000000       0.00000000       0.00000000
H       -0.16999500      -1.48919834       2.27327540
H        1.00525507      -1.83689246       1.71764748
H        0.53433977       2.69893812       0.67870171
H        2.09371124      -0.90438157       0.51140090
5
Properties=species:S:1:pos:R:3 energy=-40.099077620636706 pbc="F F F"
C        0.00000000       0.00000000       0.00000000
H       -0.43470209       0.06111268       1.88769681
H       -2.37609470      -0.21170721       0.35298125
H        0.38310830       0.87454466       0.95966194
H        0.20501036      -1.13624754      -0.26814831
5
Properties=species:S:1:pos:R:3 energy=-39.88558842319643 pbc="F F F"
C        0.00000000       0.00000000       0.00000000
H       -0.19143521      -0.38001738      -1.94406658
H        0.46011833       0.48173780       2.79044781
H        0.14958024      -0.77316414       2.57631596
H       -1.55821757       2.44336868       0.38089158
5
Properties=species:S:1:pos:R:3 energy=-39.80814845866455 pbc="F F F"
C        0.00000000       0.00000000       0.00000000
H        1.98875883      -1.19399079       1.86483865
H       -0.10592882      -1.88116772       0.38193042
H        0.12874357       0.81260061      -0.09131893
H       -2.52169272      -0.43718505       0.62690207
5
Properties=species:S:1:pos:R:3 energy=-39.99954012030341 pbc="F F F"
C        0.00000000       0.00000000       0.00000000
H        0.87901115       0.19495952       1.71699360
H       -0.96806471      -1.29631242       1.06798150
H       -1.08049405      -0.88992605      -0.09167236
H       -1.98373570      -0.42289944       0.37403619
5
Properties=species:S:1:pos:R:3 energy=-39.851731647672835 pbc="F F F"
C        0.00000000       0.00000000       0.00000000
H        2.09917670       0.90546856      -0.20699218
H       -2.26375755      -1.61595497      -0.84842646
H       -2.55199395      -0.20502901       0.69397705
H        0.69720913      -1.20792760       1.11427466
5
Properties=species:S:1:pos:R:3 energy=-40.04319482589179 pbc="F F F"
C        0.00000000       0.00000000       0.00000000
H        1.88020050       2.03315102       0.36419871
H        0.84707043      -1.47060816       0.46446411
H        0.84547290       1.08202679      -0.84558959
H       -1.07614486       0.42390935      -0.41174005
5
Properties=species:S:1:pos:R:3 energy=-39.80387101674895 pbc="F F F"
C        0.00000000       0.00000000       0.00000000
H        0.61106235       1.13093507      -2.66458089
H       -1.10352277       1.32711886      -1.38496257
H        0.73630757      -0.86010561       2.34835478
H       -0.25496427       0.75581025       2.32853243
5
Properties=species:S:1:pos:R:3 energy=-39.76145906421785 pbc="F F F"
C        0.00000000       0.00000000       0.00000000
H        1.78446092      -1.75479228      -0.27703022
H        2.00755308       0.70350687       1.14132308
H       -1.22187060      -2.34376638       0.37309522
H       -1.21409790       1.38391117       2.06069463
5
Properties=species:S:1:pos:R:3 energy=-39.98167225889637 pbc="F F F"
C        0.00000000       0.00000000       0.00000000
H        0.66916382      -0.41633750       0.72289964
H        1.69828488      -0.08016869       1.26591342
H        2.04975722      -0.02159869      -0.15933613
H        1.35982665       1.82729475       0.54349925
5
Properties=species:S:1:pos:R:3 energy=-40.03822277971298 pbc="F F F"
C        0.00000000       0.00000000       0.00000000
H        1.49267142      -1.66069033       1.29518404
H        2.30510032       0.82893863      -1.52393553
H        1.31310725      -2.40405788       0.70087201
H       -0.54887666       0.43589767      -0.88459636
5
Properties=species:S:1:pos:R:3 energy=-39.80149154108664 pbc="F F F"
C        0.00000000       0.00000000       0.00000000
H       -0.35086394       2.24759358       1.64825678
H        2.63872850       0.17811073       0.30003128
H       -1.22779009      -0.54793695      -2.54065255
H        1.14687909       1.77424905       1.34211109
5
Properties=species:S:1:pos:R:3 energy=-39.97027389225376 pbc="F F F"
C        0.00000000       0.00000000       0.00000000
H        0.38591533      -1.91059344       1.61578088
H       -0.06299341      -0.83804928      -1.90064569
H       -1.54096816      -1.99163140      -0.18450829
H       -2.01593774      -1.61999843       0.21945786
5
Properties=species:S:1:pos:R:3 energy=-39.90482767743964 pbc="F F F"
C        0.00000000       0.00000000       0.00000000
H        1.32424076      -0.97490935      -1.68390678
H       -2.49829307      -0.38913200      -0.93981110
H        1.26434642      -2.07876108       0.35064113
H       -1.67221680      -0.79500290      -1.69838057
5
Properties=species:S:1:pos:R:3 energy=-39.98489745915465 pbc="F F F"
C        0.00000000       0.00000000       0.00000000
H       -1.45039976      -0.77450919      -2.21820196
H       -0.75804124      -1.17479924      -0.53455285
H       -1.22768059       1.31028996       0.62012244
H       -0.56372772       0.48278208       1.61796938
5
Properties=species:S:1:pos:R:3 energy=-39.196466391996324 pbc="F F F"
C        0.00000000       0.00000000       0.00000000
H        0.60372346       0.26799582       1.39121258
H       -1.35888277       0.04747962      -1.03070075
H       -0.48212133       0.20777454       0.03989426
H       -0.34829862       2.12672705       0.41651990
5
Properties=species:S:1:pos:R:3 energy=-40.07323826096419 pbc="F F F"
C        0.00000000       0.00000000       0.00000000
H        1.53221844      -0.05551420       1.31462270
H        1.22714222      -0.92451439       0.14625494
H       -1.54957551      -0.49214209       0.69545340
H       -1.61528512      -0.56999863       1.58088258
5
Properties=species:S:1:pos:R:3 energy=-40.09329631868734 pbc="F F F"
C        0.00000000       0.00000000       0.00000000
H       -0.62704196       0.53390178      -0.84436977
H        0.62231869       0.68748704       0.50781408
H       -1.61433345      -2.33701464      -0.43788698
H       -0.95779211       0.57849802      -0.06212134
5
Properties=species:S:1:pos:R:3 energy=-39.89640304873036 pbc="F F F"
C        0.00000000       0.00000000       0.00000000
H       -1.31323626       1.56696100       1.83639844
H        0.01940458       0.82840538      -1.70289850
H       -2.83136516      -0.40890100       0.12133019
H       -0.46085756       0.84197597      -2.16267959
5
Properties=species:S:1:pos:R:3 energy=-39.94965594591753 pbc="F F F"
C        0.00000000       0.00000000       0.00000000
H       -2.25939443      -0.80253324      -1.07087213
H        1.71153554       1.53936044       0.21588768
H        1.36837137      -0.84308151      -0.91403731
H        1.44315439       0.59543841      -0.66489421
5
Properties=species:S:1:pos:R:3 energy=-39.95257423325188 pbc="F F F"
C        0.00000000       0.00000000       0.00000000
H        0.35263243       0.60529885       0.64589154
H        1.09948293       1.84228287      -0.80724322
H       -2.34946402       0.66036964      -1.32545094
H       -1.00836407       1.67139161      -1.54011999
5
Properties=species:S:1:pos:R:3 energy=-39.8738443651355 pbc="F F F"
C        0.00000000       0.00000000       0.00000000
H        1.38977060       2.01705473      -0.92575830
H       -1.52685479      -0.75950482       2.16484284
H       -1.69487320      -1.88409134       0.41660729
H       -1.14582614      -0.75871574       0.94835828
5
Properties=species:S:1:pos:R:3 energy=-39.8300661191711 pbc="F F F"
C        0.00000000       0.00000000       0.00000000
H       -1.64958325       1.68845143       1.37229210
H        2.41257034       0.75715393      -1.24547732
H       -0.28045690       2.06679657       1.18892510
H        0.66794971      -0.99990076      -2.20800256
5
Properties=species:S:1:pos:R:3 energy=-40.00280441200175 pbc="F F F"
C        0.00000000       0.00000000       0.00000000
H       -1.86604729      -1.37861863      -0.45922107
H        0.22844748      -0.87191359       1.75939808
H       -1.03337239      -1.34704613       2.01820451
H        0.25635213       1.27045220      -0.18559112
5
Properties=species:S:1:pos:R:3 energy=-39.925566183081244 pbc="F F F"
C        0.00000000       0.00000000       0.00000000
H        1.41783125      -0.96386587      -2.33040382
H        1.69992190       0.23704637       1.13130303
H        1.60009623       0.03261575       0.50143061
H       -1.82456138      -1.25681499      -0.14306292
5
Properties=species:S:1:pos:R:3 energy=-39.79607973376508 pbc="F F F"
C        0.00000000       0.00000000       0.00000000
H        2.70016951       0.51119452       0.38875222
H        0.85812998      -1.75804519       2.23711263
H        0.06191379      -0.07637196       0.78372680
H        2.42693167      -1.21573248       1.19072350
5
Properties=species:S:1:pos:R:3 energy=-39.94234941706099 pbc="F F F"
C        0.00000000       0.00000000       0.00000000
H       -1.17932624      -1.10316335       1.40480809
H       -1.81214824      -1.77215358       0.31231008
H       -2.27703433       1.75194595      -0.43116351
H        0.15796753       0.45840348       1.52664520
5
Properties=species:S:1:pos:R:3 energy=-39.89708156277979 pbc="F F F"
C        0.00000000       0.00000000       0.00000000
H       -1.11012747      -2.47767613      -1.16777882
H       -2.17862351       1.65210883      -0.54520031
H        2.10902678       0.79353447       0.22017017
H       -1.44548817      -1.93524400      -0.27023801
5
Properties=species:S:1:pos:R:3 energy=-39.919546659323 pbc="F F F"
C        0.00000000       0.00000000       0.00000000
H       -0.24981699       1.74146215       1.62825078
H        1.83968282       0.95108048       1.76710342
H       -2.01749506      -1.76261016      -0.30411322
H        1.31312657       0.97361114       1.29757589
5
Properties=species:S:1:pos:R:3 energy=-39.69027600660942 pbc="F F F"
C        0.00000000       0.00000000       0.00000000
H       -1.70358342      -1.23401339       1.14146410
H        0.39337431      -0.64097912      -0.07027307
H        0.96412493      -2.15779027      -0.37624569
H        0.30682418       2.76124089      -1.03809871
5
Properties=species:S:1:pos:R:3 energy=-39.909228415742405 pbc="F F F"
C        0.00000000       0.00000000       0.00000000
H        1.22489333       1.94589588       0.87931738
H        0.79605634       0.42642830      -0.31445910
H       -0.58429912      -2.60692327       1.28008503
H        1.13139915      -1.44884576      -0.16285336
5
Properties=species:S:1:pos:R:3 energy=-39.819275763589076 pbc="F F F"
C        0.00000000       0.00000000       0.00000000
H       -1.11713065      -0.79372490       1.87455755
H        2.17881142       1.36897329      -0.29026229
H       -0.02240335       1.92408927      -0.63741549
H        1.03060314      -2.01662638      -0.55350914
5
Properties=species:S:1:pos:R:3 energy=-39.96545340203547 pbc="F F F"
C        0.00000000       0.00000000       0.00000000
H       -0.71837710       0.67944227       2.30769338
H       -1.25837649      -1.02085231      -0.84521433
H        0.37512206       2.02378304      -0.18331462
H       -0.61410823      -1.47893767      -1.17036412
5
Properties=species:S:1:pos:R:3 energy=-39.90315121442249 pbc="F F F"
C        0.00000000       0.00000000       0.00000000
H        1.22730108      -0.16356041      -2.57702925
H        1.00207316      -1.58502724      -1.50883819
H       -1.68582141       1.72430175      -0.88185519
H        0.53489084      -0.46129598      -1.98802829
5
Properties=species:S:1:pos:R:3 energy=-40.06462265547103 pbc="F F F"
C        0.00000000       0.00000000       0.00000000
H       -1.73908085       0.99892345       0.48328234
H        1.33005022       0.54260918       0.06776456
H       -0.17552797       2.08474975       1.35072646
H        0.62826446       2.16192846       1.31266747
5
Properties=species:S:1:pos:R:3 energy=-39.86144767907077 pbc="F F F"
C        0.00000000       0.00000000       0.00000000
H        0.09160751       0.23302361       0.93953672
H        2.48780879       0.61599196      -0.27819601
H        0.08810061      -1.74448830      -2.13537835
H        1.00286878       0.85035214       1.68589726
5
Properties=species:S:1:pos:R:3 energy=-39.88750372297057 pbc="F F F"
C        0.00000000       0.00000000       0.00000000
H       -0.81524207      -0.98620607      -1.21192477
H        0.97264436       1.55057137      -1.25317771
H        0.87354073       0.44609231       2.44545690
H        0.61709922       2.00438313       1.51496057
5
Properties=species:S:1:pos:R:3 energy=-39.94164674103759 pbc="F F F"
C        0.00000000       0.00000000       0.00000000
H       -0.69757131       1.77201314      -0.29293132
H       -0.82671013      -0.09585089       0.21248555
H        2.29029870      -1.50579178       0.86985063
H        1.83141480      -0.41131172       1.91326930
5
Properties=species:S:1:pos:R:3 energy=-39.90270715033698 pbc="F F F"
C        0.00000000       0.00000000       0.00000000
H       -0.53394196       2.02639923       1.25355445
H       -0.67559653      -0.40183424      -0.22586802
H       -0.13803439      -1.12972022       1.44783079
H       -2.07372983       0.71551317       0.82211017
5
Properties=species:S:1:pos:R:3 energy=-39.78333418653262 pbc="F F F"
C        0.00000000       0.00000000       0.00000000
H        0.52626937       0.06268102      -1.80906776
H       -0.60141830       2.08216137      -0.52946579
H        0.39967086       1.51785877       1.94869561
H        0.04621508       0.34743699      -0.71985505
5
Properties=species:S:1:pos:R:3 energy=-39.85997608499865 pbc="F F F"
C        0.00000000       0.00000000       0.00000000
H       -2.08866421       0.66947852       0.72696003
H        0.79204791      -2.06955626       0.03290151
H       -2.73911461       0.41905754      -0.46987778
H       -0.52228266       2.20217612       1.76845101
5
Properties=species:S:1:pos:R:3 energy=-39.937455409320265 pbc="F F F"
C        0.00000000       0.00000000       0.00000000
H       -0.63616275       1.95862899       1.32413371
H       -1.85461294       0.89048028      -1.07655592
H       -1.46437340       2.39399981       0.79413346
H        2.06234059       0.79796364      -0.29217265
5
Properties=species:S:1:pos:R:3 energy=-39.82278825510127 pbc="F F F"
C        0.00000000       0.00000000       0.00000000
H        1.30123546      -0.33150347      -1.93470472
H        2.14335184       0.94166060      -0.07257870
H       -0.59903005       1.89297032       0.45357919
H        0.71230350      -2.09558334       1.65820461
5
Properties=species:S:1:pos:R:3 energy=-39.92189819131818 pbc="F F F"
C        0.00000000       0.00000000       0.00000000
H       -1.22037614      -1.79591726       0.61159469
H        1.00112844       0.96239134      -0.07878491
H        0.17568007       0.64125931       2.40748972
H       -0.14076712      -1.77993738      -0.86611634
5
Properties=species:S:1:pos:R:3 energy=-39.96846580692548 pbc="F F F"
C        0.00000000       0.00000000       0.00000000
H       -1.98507994       0.22523647      -1.16416730
H       -1.64119126       2.42420793       0.37812166
H        0.61170931       1.98069119      -0.20263961
H       -1.09300738       2.11964540       0.25172737
5
Properties=species:S:1:pos:R:3 energy=-39.87580702291776 pbc="F F F"
C        0.00000000       0.00000000       0.00000000
H        1.38260584      -1.35646183      -1.80917314
H       -1.93633963       1.25115499      -0.08206764
H        0.93997264       2.01158556       0.40145204
H        2.12563860      -0.14826493      -1.23781151
5
Properties=species:S:1:pos:R:3 energy=-39.90377505252867 pbc="F F F"
C        0.00000000       0.00000000       0.00000000
H        0.92445252       0.82392263      -2.02838171
H        0.94292828      -1.50980926      -1.01344498
H       -0.19427211       0.29898793       2.32191302
H        0.60765921      -0.84709349       2.33412905
5
Properties=species:S:1:pos:R:3 energy=-39.92324143246093 pbc="F F F"
C        0.00000000       0.00000000       0.00000000
H       -2.60586229       0.61284644       0.86237371
H        0.88347360       1.81548896       0.11288073
H       -1.06654801      -0.88961282      -0.53206389
H        1.15200210       2.31256297      -1.43058963
5
Properties=species:S:1:pos:R:3 energy=-40.03774768273624 pbc="F F F"
C        0.00000000       0.00000000       0.00000000
H       -0.45196616       1.58678164       0.14421369
H        0.32702753      -2.08931273       0.76892468
H       -0.03730594      -0.76829268       1.46220198
H       -0.00539037       0.71683281       1.01702369
5
Properties=species:S:1:pos:R:3 energy=-39.89074686955547 pbc="F F F"
C        0.00000000       0.00000000       0.00000000
H        0.14915959       2.13204995      -1.65701041
H       -1.25582390       0.89112027      -0.42429151
H        0.35328121       2.70752820       0.54150993
H        0.70542973      -0.72507458       1.61335379
5
Properties=species:S:1:pos:R:3 energy=-39.93262952571666 pbc="F F F"
C        0.00000000       0.00000000       0.00000000
H       -0.42109043      -1.20889209       0.33865966
H       -0.26461814       1.86603737       1.54307403
H       -0.77714228      -1.28590356      -0.27813523
H        1.94783680      -1.76795689      -0.12611778
5
Properties=species:S:1:pos:R:3 energy=-39.80045977751726 pbc="F F F"
C        0.00000000       0.00000000       0.00000000
H        2.36054558       0.77127372      -0.03236677
H       -0.14343399      -1.71609673      -1.92317804
H       -1.39819926      -1.25221930       0.15481125
H        0.67536933      -0.38970786       2.72013523
5
Properties=species:S:1:pos:R:3 energy=-40.002563052558116 pbc="F F F"
C        0.00000000       0.00000000       0.00000000
H       -1.09053445      -0.89300971      -0.31747120
H        0.64753156      -1.98593096      -0.47574525
H       -0.92463616      -1.01560451      -1.72452477
H        0.96152854       1.39280084      -0.65272030
5
Properties=species:S:1:pos:R:3 energy=-40.0448958701548 pbc="F F F"
C        0.00000000       0.00000000       0.00000000
H       -0.42685023       0.69993927       0.62783953
H        0.29047109       2.30121513       0.99850154
H       -1.76217009      -1.71630304       1.21967565
H        0.70000669       1.73782548       1.25925023
5
Properties=species:S:1:pos:R:3 energy=-39.86087820925917 pbc="F F F"
C        0.00000000       0.00000000       0.00000000
H       -1.77147636      -0.84624190       0.30367565
H       -0.19346038       2.98727945      -0.14521601
H       -1.35760505      -2.34443292      -1.22017775
H       -0.43112707       1.04879283       1.27780652
5
Properties=species:S:1:pos:R:3 energy=-39.813678749303065 pbc="F F F"
C        0.00000000       0.00000000       0.00000000
H       -2.06905973      -1.07217703      -1.39388986
H       -1.32845766       1.94169986      -0.48199909
H       -2.14616495       1.01265808      -1.81685758
H       -0.39726446       1.81537832       1.46034334
5
Properties=species:S:1:pos:R:3 energy=-39.923360565792734 pbc="F F F"
C        0.00000000       0.00000000       0.00000000
H       -0.18493942      -1.98796423       0.27137679
H        0.86289057      -1.20774109       0.06237960
H       -1.55471991      -0.64798584       2.46951261
H        1.56001965      -0.02529922       1.84717861
5
Properties=species:S:1:pos:R:3 energy=-39.866268330630625 pbc="F F F"
C        0.00000000       0.00000000       0.00000000
H       -0.40322231      -0.00204164      -2.75788409
H        0.08144845      -0.27350396      -2.69021765
H        0.61726247       1.96244482       2.04382027
H        2.17105640      -1.31096208       0.27120330
5
Properties=species:S:1:pos:R:3 energy=-39.89077451736721 pbc="F F F"
C        0.00000000       0.00000000       0.00000000
H        0.80031672      -1.45418346      -0.07813922
H       -0.27481842       1.72494280      -0.27302004
H        2.38699209       0.70652078       0.87287237
H       -2.08511030      -1.03205125       0.51528722
5
Properties=species:S:1:pos:R:3 energy=-39.94569410988218 pbc="F F F"
C        0.00000000       0.00000000       0.00000000
H       -0.49349440       0.44812247       1.03362002
H       -2.00745187       0.87389681      -1.26807247
H       -0.88973937       0.05468016       1.93942042
H        1.27790898      -1.18981353       1.35825947
5
Properties=species:S:1:pos:R:3 energy=-39.95732509959232 pbc="F F F"
C        0.00000000       0.00000000       0.00000000
H        0.33201812       1.14734408      -2.17624651
H       -0.65874851       1.68641088      -0.51546800
H       -0.91790820       1.70390991      -1.61997810
H       -1.69224160      -0.07868095      -1.16112386
5
Properties=species:S:1:pos:R:3 energy=-39.83739457482005 pbc="F F F"
C        0.00000000       0.00000000       0.00000000
H       -2.46673222      -0.08210048      -1.42346923
H        0.17952620       2.17152401       0.09335409
H       -0.93442791       2.58606800      -0.71176973
H        1.21720257       0.02007228      -2.29739142
5
Properties=species:S:1:pos:R:3 energy=-39.9270479418699 pbc="F F F"
C        0.00000000       0.00000000       0.00000000
H       -0.37916219      -2.06018379       0.39112934
H        0.72585261       1.62806993      -1.65127565
H       -1.34892545       0.24915472      -0.23759793
H        0.16518634      -1.79724644      -1.93155265
5
Properties=species:S:1:pos:R:3 energy=-39.869109479137116 pbc="F F F"
C        0.00000000       0.00000000       0.00000000
H        0.61428000      -2.02268018      -0.91287158
H        0.01597141      -0.22120362      -2.36693696
H       -2.45071469      -1.12647826       0.11579330
H        0.77758021      -1.58990292      -0.66326438
5
Properties=species:S:1:pos:R:3 energy=-40.05100288090226 pbc="F F F"
C        0.00000000       0.00000000       0.00000000
H       -1.17702817      -1.22689833       1.64653358
H       -0.81275946       0.59457220       0.79895831
H        1.06446039       1.34293033       0.47064911
H       -0.82375244      -1.30236108      -0.38273444
5
Properties=species:S:1:pos:R:3 energy=-40.00963132279348 pbc="F F F"
C        0.00000000       0.00000000       0.00000000
H       -1.18189097      -1.79840187      -1.59808499
H        0.67860338      -1.21644631      -1.03483531
H        0.19211241      -2.11355616      -1.53927972
H        1.18850990       1.25151446      -0.28718765
5
Properties=species:S:1:pos:R:3 energy=-39.85245638077658 pbc="F F F"
C        0.00000000       0.00000000       0.00000000
H       -1.37427046      -1.16817656       2.03936952
H        1.48864635       1.36174540       2.07203219
H       -0.86761612      -1.01196221       0.81030785
H        0.04169868       2.75273027      -0.84471190
5
Properties=species:S:1:pos:R:3 energy=-39.86986004598102 pbc="F F F"
C        0.00000000       0.00000000       0.00000000
H       -2.23876722      -0.60552024      -0.58867340
H        1.97208107      -1.12853998       1.23182650
H       -1.28574109      -1.02413271       2.30708824
H       -1.94009206      -0.11951363      -1.58759279
5
Properties=species:S:1:pos:R:3 energy=-39.93330935463444 pbc="F F F"
C        0.00000000       0.00000000       0.00000000
H        0.44032943       0.91604413      -1.74107354
H       -1.38395564      -0.78109693      -0.17113684
H        1.57674842      -0.51730276       1.14043015
H        0.58669047       2.37440717       0.74072945
5
Properties=species:S:1:pos:R:3 energy=-40.09296855050896 pbc="F F F"
C        0.00000000       0.00000000       0.00000000
H       -1.65289561      -2.16136193       0.20198515
H       -2.31979255      -1.78837971      -0.40634277
H       -1.43192691      -0.19776646       0.43450017
H       -1.33353901      -0.13219513      -0.96530648
5
Properties=species:S:1:pos:R:3 energy=-39.809442856672135 pbc="F F F"
C        0.00000000       0.00000000       0.00000000
H       -0.82105529       0.26268610      -2.21252023
H        1.35694838       1.57993043       1.77223937
H       -2.50154944       1.15059836      -0.17200199
H       -0.13868484       2.17066857       1.00403837
5
Properties=species:S:1:pos:R:3 energy=-39.933655348052305 pbc="F F F"
C        0.00000000       0.00000000       0.00000000
H       -1.63201646       1.87224810       0.45223661
H       -1.61518527      -0.50154049       0.45603738
H       -1.98985423       0.37808052       0.02013449
H        0.96897192       0.20746922      -2.58441364
5
Properties=species:S:1:pos:R:3 energy=-40.05020940628718 pbc="F F F"
C        0.00000000       0.00000000       0.00000000
H       -2.03902582       1.96356002       0.30799430
H        1.42495010       0.58002078      -0.31958524
H        0.19037545       1.09418637       1.38698084
H       -1.59671230       1.71997806       0.48549511
5
Properties=species:S:1:pos:R:3 energy=-39.73635055065846 pbc="F F F"
C        0.00000000       0.00000000       0.00000000
H        0.73122213       1.32015377      -0.85711138
H        0.41272190       0.60793140       0.96982290
H        0.58364824      -0.25956400       0.16497063
H       -2.08935563       0.95574132       1.43592098
5
Properties=species:S:1:pos:R:3 energy=-39.916188677534514 pbc="F F F"
C        0.00000000       0.00000000       0.00000000
H       -1.86924201       1.81926836      -0.73386210
H       -0.24505702      -0.64023467      -1.59097227
H        1.38731926      -0.96558588      -1.65049642
H       -1.05304386      -1.46937683      -1.31799053
5
Properties=species:S:1:pos:R:3 energy=-39.95219059609225 pbc="F F F"
C        0.00000000       0.00000000       0.00000000
H       -2.15859876       0.66085493      -1.95340484
H        0.56139365       0.84651146       1.70372375
H        0.13175209       2.21933962      -1.40623123
H        0.71807862       1.85536876      -1.81218873
5
Properties=species:S:1:pos:R:3 energy=-39.910090437539594 pbc="F F F"
C        0.00000000       0.00000000       0.00000000
H       -1.30014898       1.21108945      -0.48495417
H       -1.23800627      -1.52862510       1.87090016
H       -2.02010676       0.35531758       0.52444665
H        0.57265976       1.59116833      -0.94179905
5
Properties=species:S:1:pos:R:3 energy=-39.923822213604815 pbc="F F F"
C        0.00000000       0.00000000       0.00000000
H       -1.12479428       0.27119293       0.19552118
H        0.75443902       1.29823646      -1.59073617
H       -1.03341093      -0.77620276       1.24603073
H       -1.94698179       2.11541282      -0.19520629
5
Properties=species:S:1:pos:R:3 energy=-39.43947957323749 pbc="F F F"
C        0.00000000       0.00000000       0.00000000
H        1.68538162       0.87446638      -0.99632396
H        0.28673397      -0.31968765      -0.43494956
H       -2.30827493      -0.75832322      -0.21157532
H       -0.69988698      -0.50128647      -2.42451271
5
Properties=species:S:1:pos:R:3 energy=-39.96188397141436 pbc="F F F"
C        0.00000000       0.00000000       0.00000000
H       -2.56159398       0.25027793       0.29918431
H       -1.49345426       2.22516732      -0.18048806
H        0.44379015       1.19441635      -0.95076929
H        0.15261422      -0.08579008      -1.56201595
5
Properties=species:S:1:pos:R:3 energy=-39.939575684732525 pbc="F F F"
C        0.00000000       0.00000000       0.00000000
H        1.04365991       0.32211184      -1.20924852
H       -0.39661994       0.26414976       2.58901263
H       -0.06725274      -1.12617323       1.36605672
H       -0.73562994      -2.01023374      -0.36075095
5
Properties=species:S:1:pos:R:3 energy=-39.69287075707273 pbc="F F F"
C        0.00000000       0.00000000       0.00000000
H       -1.35811859      -0.29160750      -1.52697042
H       -0.17114475      -0.31595252       0.63854802
H        0.01061805      -0.64348363       1.10179908
H       -0.62282300       0.18543204      -0.59720253
5
Properties=species:S:1:pos:R:3 energy=-39.94554435008238 pbc="F F F"
C        0.00000000       0.00000000       0.00000000
H       -1.35900902      -0.90724628       0.13538189
H       -0.95438595      -0.70413812       0.46636830
H       -1.42915519       0.75485588      -2.06811070
H        0.44866958       0.40272519      -1.51386708
5
Properties=species:S:1:pos:R:3 energy=-39.81040499773971 pbc="F F F"
C        0.00000000       0.00000000       0.00000000
H        2.48454997       0.73642276      -1.30967164
H        1.61845720       1.89511385      -0.68046445
H       -0.36819398       1.87265478      -2.17782334
H       -0.72046407      -2.30930114      -0.18162399
5
Properties=species:S:1:pos:R:3 energy=-39.85377721771433 pbc="F F F"
C        0.00000000       0.00000000       0.00000000
H        1.48137288       0.55740394       1.72940888
H        2.57632272       0.11452042      -0.68940730
H       -0.83355677      -2.62042117       0.68370231
H       -0.05628411      -0.17841220       1.73775523
5
Properties=species:S:1:pos:R:3 energy=-39.926408236171966 pbc="F F F"
C        0.00000000       0.00000000       0.00000000
H        0.15453579       1.38790127      -1.19761933
H        1.23775882       1.62634462       0.76010677
H       -0.88173653       2.67001515      -0.74414596